title='particle position' 
variables=x, y, Ux, Uy 
zone t='Wall' 
2.0079 2.04179 0.62374 0.000334397
2.01882 2.12555 0.671032 0.00175954
2.03241 2.20963 0.718962 0.00406595
2.09099 2.0418 0.624488 0.00028173
2.10156 2.12559 0.672775 0.00156284
2.11492 2.20967 0.721304 0.00361434
2.19745 2.20962 0.723314 0.00299489
2.1843 2.12557 0.674334 0.00129807
2.17407 2.0418 0.625178 0.00020951
1.92478 2.04178 0.622981 0.000369131
1.93602 2.12547 0.669186 0.00188353
1.94988 2.20949 0.716387 0.00432805
1.86727 2.20925 0.713711 0.00436901
1.85312 2.12534 0.667349 0.0019115
1.84159 2.04174 0.622242 0.000395749
1.7845 2.20892 0.711093 0.00416907
1.77008 2.12519 0.665627 0.00183987
1.75834 2.04171 0.621588 0.000396435
1.67504 2.04168 0.621033 0.000386613
1.6869 2.12505 0.664146 0.00170008
1.70151 2.20856 0.708729 0.00378103
1.61829 2.20829 0.706783 0.00330536
1.60359 2.12495 0.662937 0.00154102
1.59168 2.04166 0.620603 0.000365757
1.53494 2.20816 0.705284 0.00286622
1.5202 2.1249 0.66201 0.00137818
1.50831 2.04165 0.620265 0.000339915
1.42493 2.04163 0.620023 0.00030493
1.43679 2.12485 0.661309 0.00117729
1.45156 2.2081 0.704078 0.00243191
1.36821 2.20797 0.703102 0.00173907
1.35334 2.12477 0.660865 0.000837933
1.34152 2.04161 0.619899 0.000231313
1.28473 2.20766 0.702582 0.00056316
1.2698 2.12464 0.660857 0.000315027
1.25808 2.04158 0.619967 0.000107854
1.17458 2.04155 0.620286 -2.52305e-05
1.18611 2.12449 0.661452 -0.000321998
1.20099 2.20731 0.702992 -0.000965994
1.11702 2.20703 0.704482 -0.0023814
1.10229 2.12438 0.662687 -0.000926401
1.09103 2.04153 0.620859 -0.000166721
1.03292 2.20681 0.70677 -0.00353834
1.01838 2.12429 0.66446 -0.00143406
1.00745 2.0415 0.621638 -0.0002814
0.923837 2.04149 0.622585 -0.00038893
0.934381 2.12424 0.666663 -0.00185141
0.948653 2.20662 0.709703 -0.004508
0.864245 2.2066 0.71333 -0.00524117
0.850352 2.12427 0.669207 -0.00212664
0.840227 2.0415 0.623642 -0.000458376
0.779865 2.20687 0.717412 -0.00524626
0.766401 2.12441 0.671841 -0.0020935
0.756662 2.04154 0.6247 -0.000471652
0.682644 2.12464 0.674156 -0.0017111
0.695758 2.20739 0.721129 -0.00429558
0.673189 2.04159 0.625593 -0.000396523
0.612029 2.20798 0.723895 -0.00288083
0.599139 2.12489 0.675819 -0.00113847
0.589822 2.04165 0.626204 -0.000289476
0.528664 2.20851 0.725552 -0.00137178
0.51587 2.12512 0.676741 -0.000519393
0.506556 2.0417 0.626491 -0.000167305
0.423369 2.04174 0.62648 -5.34467e-05
0.432803 2.12531 0.67694 5.78777e-05
0.445589 2.20895 0.726172 2.70335e-05
0.362739 2.20927 0.72589 0.00122947
0.349882 2.12544 0.676523 0.000553266
0.340239 2.04177 0.62622 5.00144e-05
0.280043 2.20948 0.724883 0.00220814
0.267062 2.12552 0.675615 0.000959206
0.257145 2.04179 0.625768 0.000138529
0.174067 2.0418 0.625178 0.00020951
0.184302 2.12557 0.674334 0.00129807
0.197449 2.20962 0.723314 0.00299489
0.114919 2.20967 0.721304 0.00361434
0.101561 2.12559 0.672775 0.00156284
0.0909856 2.0418 0.624488 0.00028173
0.0324146 2.20963 0.718962 0.00406595
0.0188186 2.12555 0.671032 0.00175954
0.00789707 2.04179 0.62374 0.000334397
-0.241655 2.04171 0.621588 0.000396435
-0.229916 2.12519 0.665627 0.00183987
-0.215502 2.20892 0.711093 0.00416907
-0.158409 2.04174 0.622242 0.000395749
-0.14688 2.12534 0.667349 0.0019115
-0.132733 2.20925 0.713711 0.00436901
-0.0501182 2.20949 0.716387 0.00432805
-0.0639771 2.12547 0.669186 0.00188353
-0.0752228 2.04178 0.622981 0.000369131
2.24165 -0.0417091 -0.621586 -0.000397518
2.22992 -0.125198 -0.665634 -0.00184026
2.21551 -0.208922 -0.711095 -0.00416971
2.1584 -0.0417433 -0.622245 -0.000394486
2.14688 -0.125349 -0.66735 -0.00190876
2.13273 -0.209254 -0.713714 -0.00436842
2.07522 -0.0417733 -0.622979 -0.000373059
2.06398 -0.125474 -0.669187 -0.00188213
2.05012 -0.209499 -0.716393 -0.00432754
1.80255 -0.20962 -0.723313 -0.00299414
1.8157 -0.125576 -0.674335 -0.00129537
1.82593 -0.0418017 -0.625179 -0.000212337
1.88508 -0.209673 -0.721308 -0.00361371
1.89844 -0.125586 -0.672777 -0.00156352
1.90901 -0.0418029 -0.624488 -0.000278263
1.96759 -0.209637 -0.718964 -0.00406518
1.98118 -0.125554 -0.671031 -0.00176185
1.9921 -0.0417938 -0.623743 -0.000332946
1.55441 -0.208951 -0.726176 -2.95324e-05
1.56719 -0.125303 -0.676943 -5.68115e-05
1.57663 -0.0417426 -0.626477 5.10997e-05
1.63726 -0.209268 -0.72589 -0.00122755
1.65012 -0.125437 -0.676521 -0.000551224
1.65976 -0.0417711 -0.626222 -4.99759e-05
1.71995 -0.209488 -0.724888 -0.00220881
1.73294 -0.125527 -0.67562 -0.00096062
1.74286 -0.0417909 -0.625767 -0.000136181
1.32681 -0.0415924 -0.625593 0.00039971
1.30425 -0.207394 -0.721135 0.00429451
1.31735 -0.12464 -0.674155 0.00171045
1.38797 -0.20798 -0.723895 0.00288141
1.40086 -0.124892 -0.675822 0.00113628
1.41018 -0.0416505 -0.626202 0.000288226
1.47134 -0.208517 -0.725556 0.00137401
1.48413 -0.125121 -0.676738 0.000520894
1.49344 -0.0417005 -0.626491 0.000167867
1.05135 -0.206628 -0.709704 0.0045075
1.06562 -0.124238 -0.666662 0.00185116
1.07617 -0.0414929 -0.622586 0.000387759
1.13576 -0.206604 -0.713333 0.0052421
1.14965 -0.124266 -0.669207 0.00212569
1.15978 -0.0415037 -0.62364 0.00046031
1.22013 -0.206873 -0.717415 0.00524773
1.2336 -0.124411 -0.671842 0.00209569
1.24334 -0.041539 -0.6247 0.000468471
0.799011 -0.20731 -0.702998 0.000966123
0.813889 -0.124495 -0.661453 0.00032236
0.825416 -0.0415503 -0.620287 2.85243e-05
0.88297 -0.20703 -0.704484 0.00238281
0.897708 -0.124379 -0.662683 0.000925594
0.908966 -0.0415217 -0.620858 0.000163727
0.967081 -0.20681 -0.706773 0.00353847
0.981621 -0.12429 -0.664463 0.00143683
0.992553 -0.0415019 -0.621637 0.000283796
0.548437 -0.208105 -0.704084 -0.002428
0.563213 -0.124857 -0.661309 -0.00117689
0.575073 -0.0416344 -0.620022 -0.000302323
0.631797 -0.20797 -0.703102 -0.00173942
0.646658 -0.124772 -0.660869 -0.000840271
0.658475 -0.0416124 -0.619899 -0.000228638
0.715275 -0.207668 -0.702583 -0.000560317
0.730203 -0.124637 -0.660853 -0.000313992
0.741919 -0.0415807 -0.619966 -0.000110532
0.298497 -0.20857 -0.708731 -0.00377829
0.313103 -0.125053 -0.664143 -0.0017011
0.324961 -0.0416782 -0.621036 -0.00038485
0.381711 -0.208295 -0.706786 -0.00330609
0.396419 -0.124952 -0.662939 -0.00153751
0.408316 -0.0416578 -0.620601 -0.000365582
0.465065 -0.208159 -0.705283 -0.00286759
0.479804 -0.124899 -0.66201 -0.00137787
0.491691 -0.0416467 -0.620267 -0.000342177
0.0501153 -0.209499 -0.716393 -0.00432754
0.0639829 -0.125474 -0.669187 -0.00188213
0.0752247 -0.0417733 -0.622979 -0.000373059
0.132731 -0.209254 -0.713714 -0.00436842
0.14688 -0.125349 -0.66735 -0.00190876
0.158404 -0.0417433 -0.622245 -0.000394486
0.215505 -0.208922 -0.711095 -0.00416971
0.229915 -0.125198 -0.665634 -0.00184026
0.241651 -0.0417091 -0.621586 -0.000397518
-0.00789996 -0.0417938 -0.623743 -0.000332946
-0.0188166 -0.125554 -0.671031 -0.00176185
-0.0324149 -0.209637 -0.718964 -0.00406518
-0.0909915 -0.0418029 -0.624488 -0.000278263
-0.101564 -0.125586 -0.672777 -0.00156352
-0.114918 -0.209673 -0.721308 -0.00361371
-0.174069 -0.0418017 -0.625179 -0.000212337
-0.1843 -0.125576 -0.674335 -0.00129537
-0.197446 -0.20962 -0.723313 -0.00299414
zone t='Air' 
0.673189 1.95841 0.574407 0.000396523
0.599139 1.87511 0.524181 0.00113847
0.528664 1.79149 0.474448 0.00137178
0.589822 1.95835 0.573796 0.000289476
0.51587 1.87488 0.523259 0.000519393
0.445589 1.79105 0.473828 -2.70335e-05
0.506556 1.9583 0.573509 0.000167305
0.432803 1.87469 0.52306 -5.78777e-05
0.362739 1.79073 0.47411 -0.00122947
0.461489 1.70749 0.425543 0.000428732
0.397207 1.62324 0.377462 -0.00159957
0.335362 1.53895 0.32992 -0.00420304
0.378598 1.70691 0.425461 -0.00168194
0.314392 1.62261 0.377807 -0.00419548
0.25245 1.53831 0.330302 -0.00707204
0.295898 1.70651 0.426268 -0.00341052
0.231729 1.62216 0.378907 -0.00630234
0.169682 1.53782 0.331309 -0.00948434
0.275358 1.45485 0.282234 -0.00670525
0.216557 1.37103 0.233505 -0.00882091
0.158548 1.28745 0.183654 -0.0104318
0.19218 1.45415 0.282168 -0.00985828
0.133041 1.37017 0.232773 -0.0122792
0.0745721 1.28649 0.181766 -0.0137898
0.109194 1.45355 0.282703 -0.0125976
0.0497218 1.36941 0.232429 -0.0152831
1.99072 1.28554 0.179859 -0.016964
0.101008 1.20435 0.132574 -0.0104839
0.0435074 1.12196 0.0793902 -0.0081554
1.98581 1.04023 0.0240445 -0.00394944
0.0163366 1.20333 0.128658 -0.013578
1.958 1.12085 0.0730666 -0.0113138
1.89967 1.03914 0.0160606 -0.00704178
1.93169 1.20214 0.124403 -0.0170373
1.87236 1.1195 0.0662386 -0.0150197
1.81313 1.03793 0.00711933 -0.0104913
1.92817 0.958799 -0.0316853 0.00109451
1.87107 0.87713 -0.0852528 0.00546897
1.81437 0.794669 -0.135985 0.00726112
1.84206 0.95792 -0.0394887 -0.00151009
1.78581 0.876287 -0.0904771 0.00285823
1.7299 0.793415 -0.138747 0.00284258
1.75571 0.957181 -0.0476805 -0.003701
1.70087 0.875153 -0.0942602 -0.00104752
1.64529 0.791529 -0.141588 -0.00421751
1.75737 0.711475 -0.185626 0.00634697
1.6997 0.628029 -0.234942 0.00478301
1.64131 0.544327 -0.282948 0.00309731
1.67306 0.710122 -0.188261 0.000985811
1.61571 0.627004 -0.237318 0.000378315
1.55791 0.543271 -0.284095 -0.00117438
1.58811 0.708709 -0.192825 -0.00494965
1.53163 0.625925 -0.240036 -0.00412776
1.47446 0.541555 -0.286106 -0.00731174
1.5816 0.460188 -0.330235 0.000683895
1.51978 0.375879 -0.378083 -0.00160195
1.45535 0.291737 -0.42673 -0.00291294
1.49837 0.458937 -0.33159 -0.00377314
1.43645 0.374679 -0.380024 -0.00537093
1.37181 0.290781 -0.429235 -0.00556946
1.4148 0.457201 -0.334573 -0.00899631
1.35269 0.373183 -0.383414 -0.00936632
1.28778 0.289719 -0.433156 -0.00814313
1.38797 0.20798 -0.476105 -0.00288141
1.31735 0.12464 -0.525845 -0.00171045
1.24334 0.041539 -0.5753 -0.000468471
1.30425 0.207394 -0.478865 -0.00429451
1.2336 0.124411 -0.528158 -0.00209569
1.15978 0.0415037 -0.57636 -0.00046031
1.22013 0.206873 -0.482585 -0.00524773
1.14965 0.124266 -0.530793 -0.00212569
1.07617 0.0414929 -0.577414 -0.000387759
0.423369 1.95826 0.57352 5.34467e-05
0.349882 1.87456 0.523477 -0.000553266
0.280043 1.79052 0.475117 -0.00220814
0.340239 1.95823 0.57378 -5.00144e-05
0.267062 1.87448 0.524385 -0.000959206
0.197449 1.79038 0.476686 -0.00299489
0.257145 1.95821 0.574232 -0.000138529
0.184302 1.87443 0.525666 -0.00129807
0.114919 1.79033 0.478696 -0.00361434
0.213339 1.70625 0.427769 -0.00480693
0.149203 1.62187 0.380633 -0.00802763
0.0870868 1.53746 0.332921 -0.0115244
0.130882 1.7061 0.429827 -0.00591793
0.0668063 1.62171 0.382923 -0.00941564
0.0046872 1.53725 0.335143 -0.0132058
0.0485066 1.70608 0.432357 -0.00676406
1.98454 1.62172 0.385746 -0.0104507
1.92251 1.53727 0.338046 -0.0144644
0.0264395 1.45305 0.283831 -0.014991
1.96666 1.36871 0.232537 -0.018091
1.90709 1.28453 0.17811 -0.0203196
1.94397 1.45272 0.285615 -0.0170645
1.88394 1.36812 0.233331 -0.0207599
1.82389 1.28357 0.176971 -0.023956
1.86185 1.45265 0.288305 -0.0187152
1.80176 1.36777 0.23525 -0.0232084
1.74119 1.2828 0.17692 -0.0274311
1.84722 1.20077 0.120097 -0.0210274
1.78649 1.11784 0.0585221 -0.0195152
1.72598 1.03668 -0.0035612 -0.0136633
1.76306 1.19935 0.115909 -0.0255876
1.7007 1.1163 0.0503671 -0.0240547
1.63772 1.03552 -0.0159075 -0.0166405
1.67957 1.19815 0.112354 -0.030842
1.61423 1.11504 0.0398004 -0.02787
1.66939 0.956107 -0.0554698 -0.00677733
1.6166 0.872643 -0.0968551 -0.00943606
1.56016 0.789201 -0.146953 -0.0128687
1.58323 0.953934 -0.0603515 -0.0149904
1.53129 0.869497 -0.100806 -0.0213145
1.47281 0.788378 -0.15625 -0.0178837
1.50284 0.707742 -0.198667 -0.00919827
1.4479 0.623494 -0.24254 -0.0125737
1.39038 0.539113 -0.290953 -0.0144722
1.41793 0.704659 -0.203495 -0.0195067
1.36331 0.619636 -0.249335 -0.0231475
1.30583 0.536659 -0.296972 -0.0193611
1.33309 0.700167 -0.208967 -0.0329928
1.27738 0.617748 -0.258832 -0.0256854
1.22113 0.532153 -0.302934 -0.0299298
1.33078 0.455142 -0.338831 -0.014052
1.26831 0.371449 -0.388586 -0.0135591
1.20319 0.288812 -0.438532 -0.00987392
1.24617 0.452411 -0.344749 -0.0207562
1.18303 0.369931 -0.396091 -0.0164523
1.11823 0.288497 -0.444225 -0.00943248
1.15976 0.449796 -0.355518 -0.02585
1.09714 0.369894 -0.403893 -0.0144256
1.03344 0.288792 -0.448578 -0.00768461
1.13576 0.206604 -0.486667 -0.0052421
1.06562 0.124238 -0.533338 -0.00185116
0.992553 0.0415019 -0.578363 -0.000283796
1.05135 0.206628 -0.490296 -0.0045075
0.981621 0.12429 -0.535537 -0.00143683
0.908966 0.0415217 -0.579142 -0.000163727
0.967081 0.20681 -0.493227 -0.00353847
0.897708 0.124379 -0.537317 -0.000925594
0.825416 0.0415503 -0.579713 -2.85243e-05
0.174067 1.9582 0.574822 -0.00020951
0.101561 1.87441 0.527225 -0.00156284
0.0324146 1.79037 0.481038 -0.00406595
0.0909856 1.9582 0.575512 -0.00028173
0.0188186 1.87445 0.528968 -0.00175954
1.94988 1.79051 0.483613 -0.00432805
0.00789707 1.95821 0.57626 -0.000334397
1.93602 1.87453 0.530814 -0.00188353
1.86727 1.79075 0.486289 -0.00436901
1.96618 1.70621 0.435275 -0.00731981
1.90237 1.62198 0.389109 -0.0110375
1.84058 1.53764 0.341751 -0.015095
1.88382 1.70652 0.438501 -0.00750733
1.82025 1.62254 0.392927 -0.0110247
1.75881 1.53852 0.346309 -0.0147774
1.80136 1.70703 0.44186 -0.00727413
1.738 1.62342 0.397007 -0.0102662
1.67694 1.53994 0.351361 -0.0132492
1.78022 1.45305 0.292263 -0.0196315
1.72033 1.36793 0.238962 -0.0250009
1.6594 1.28227 0.178796 -0.0309779
1.69908 1.4543 0.297939 -0.0189488
1.64012 1.36957 0.246088 -0.0244499
1.57971 1.28394 0.186122 -0.03086
1.61793 1.45651 0.304778 -0.016081
1.5604 1.37298 0.256121 -0.0196292
1.50096 1.28847 0.198642 -0.023373
1.59563 1.19692 0.108921 -0.0349209
1.19238 0.61102 -0.265501 -0.0407584
1.13381 0.527526 -0.316423 -0.0386174
1.1059 0.606324 -0.275874 -0.0508459
1.04471 0.532671 -0.329886 -0.023533
0.959546 0.537852 -0.331315 -0.0116267
1.07231 0.450974 -0.366642 -0.0196978
1.01215 0.371106 -0.40795 -0.0104034
0.949094 0.289209 -0.451607 -0.00592202
0.987265 0.453929 -0.369353 -0.0115503
0.928003 0.371725 -0.410346 -0.00824159
0.864902 0.289553 -0.454044 -0.0039477
0.903513 0.453884 -0.371005 -0.0105823
0.843689 0.372108 -0.413018 -0.00534344
0.780878 0.290113 -0.455346 -0.00123481
0.88297 0.20703 -0.495516 -0.00238281
0.813889 0.124495 -0.538547 -0.00032236
0.741919 0.0415807 -0.580034 0.000110532
0.799011 0.20731 -0.497002 -0.000966123
0.730203 0.124637 -0.539147 0.000313992
0.658475 0.0416124 -0.580101 0.000228638
0.715275 0.207668 -0.497417 0.000560317
0.646658 0.124772 -0.539131 0.000840271
0.575073 0.0416344 -0.579978 0.000302323
1.92478 1.95822 0.577019 -0.000369131
1.85312 1.87466 0.532651 -0.0019115
1.7845 1.79108 0.488907 -0.00416907
1.84159 1.95826 0.577758 -0.000395749
1.77008 1.87481 0.534373 -0.00183987
1.70151 1.79144 0.491271 -0.00378103
1.75834 1.95829 0.578412 -0.000396435
1.6869 1.87495 0.535854 -0.00170008
1.61829 1.79171 0.493217 -0.00330536
1.71868 1.70766 0.445094 -0.00661802
1.65541 1.62445 0.400851 -0.00884166
1.59455 1.54156 0.356044 -0.0106474
1.63566 1.70824 0.447871 -0.00569078
1.5723 1.62525 0.403808 -0.00727157
1.51123 1.54241 0.358955 -0.00824565
1.55235 1.70857 0.449956 -0.00482233
1.48884 1.62534 0.405679 -0.00628092
1.42749 1.54151 0.359724 -0.00871358
1.53595 1.45885 0.310607 -0.0119966
1.47944 1.37569 0.26466 -0.0138687
1.45279 1.45941 0.313709 -0.00965312
1.39598 1.37443 0.267075 -0.014572
1.36907 1.45572 0.314054 -0.0150368
0.876112 0.536574 -0.332202 -0.0123582
0.792723 0.539566 -0.330762 -0.000513716
0.712161 0.545445 -0.320532 0.0152409
0.819157 0.454585 -0.373292 -0.00539117
0.759729 0.373343 -0.413409 -0.000283647
0.69732 0.29088 -0.454819 0.00164545
0.736167 0.457614 -0.369958 0.00426652
0.676809 0.374825 -0.410733 0.00447136
0.614178 0.29137 -0.453168 0.00343939
0.65489 0.459734 -0.363011 0.0100535
0.594325 0.375122 -0.407486 0.00609355
0.531009 0.291419 -0.451529 0.00422122
0.631797 0.20797 -0.496898 0.00173942
0.563213 0.124857 -0.538691 0.00117689
0.491691 0.0416467 -0.579733 0.000342177
0.548437 0.208105 -0.495916 0.002428
0.479804 0.124899 -0.53799 0.00137787
0.408316 0.0416578 -0.579399 0.000365582
0.465065 0.208159 -0.494717 0.00286759
0.396419 0.124952 -0.537061 0.00153751
0.324961 0.0416782 -0.578964 0.00038485
1.67504 1.95832 0.578967 -0.000386613
1.60359 1.87505 0.537063 -0.00154102
1.53494 1.79184 0.494716 -0.00286622
1.59168 1.95834 0.579397 -0.000365757
1.5202 1.8751 0.53799 -0.00137818
1.45156 1.7919 0.495922 -0.00243191
1.50831 1.95835 0.579735 -0.000339915
1.43679 1.87515 0.538691 -0.00117729
1.36821 1.79203 0.496898 -0.00173907
1.46899 1.70858 0.45153 -0.00422121
1.40568 1.62487 0.407479 -0.00609793
1.34511 1.54027 0.363011 -0.0100575
1.38582 1.70863 0.453166 -0.00343945
1.32319 1.62517 0.410735 -0.00447238
1.26383 1.54238 0.369955 -0.00426873
1.30268 1.70913 0.454823 -0.00164723
1.24027 1.62666 0.413407 0.000280838
1.18084 1.54542 0.373297 0.00539025
1.28784 1.45456 0.32054 -0.0152455
1.20728 1.46044 0.330765 0.000510281
1.12389 1.46343 0.332206 0.0123574
0.630926 0.544288 -0.314054 0.0150316
0.604017 0.625576 -0.267071 0.0145684
0.547213 0.540592 -0.313711 0.00964926
0.520565 0.624317 -0.26466 0.0138646
0.464052 0.54115 -0.310604 0.0119968
0.572502 0.458487 -0.359724 0.00871136
0.511162 0.374648 -0.405686 0.00627837
0.447644 0.291435 -0.449957 0.00481855
0.488763 0.457584 -0.358962 0.00824329
0.427691 0.374749 -0.403809 0.00727263
0.364337 0.291758 -0.447871 0.00568878
0.405444 0.458445 -0.356047 0.0106446
0.344587 0.375544 -0.400857 0.00884208
0.281324 0.292342 -0.445093 0.00661838
0.381711 0.208295 -0.493214 0.00330609
0.313103 0.125053 -0.535857 0.0017011
0.241651 0.0417091 -0.578414 0.000397518
0.298497 0.20857 -0.491269 0.00377829
0.229915 0.125198 -0.534366 0.00184026
0.158404 0.0417433 -0.577755 0.000394486
0.215505 0.208922 -0.488905 0.00416971
0.14688 0.125349 -0.53265 0.00190876
0.0752247 0.0417733 -0.577021 0.000373059
1.42493 1.95837 0.579977 -0.00030493
1.35334 1.87523 0.539135 -0.000837933
1.28473 1.79234 0.497418 -0.00056316
1.34152 1.95839 0.580101 -0.000231313
1.2698 1.87536 0.539143 -0.000315027
1.20099 1.79269 0.497008 0.000965994
1.25808 1.95842 0.580033 -0.000107854
1.18611 1.87551 0.538548 0.000321998
1.11702 1.79297 0.495518 0.0023814
1.21913 1.70989 0.455348 0.00123401
1.15631 1.62789 0.413017 0.00534368
1.09648 1.54612 0.371001 0.0105798
1.1351 1.71045 0.454045 0.0039446
1.07199 1.62827 0.410346 0.00823758
1.01273 1.54606 0.369354 0.0115504
1.05091 1.71079 0.451608 0.00592202
0.987853 1.62889 0.407946 0.0104035
0.927693 1.54902 0.366638 0.019697
1.04045 1.46215 0.331318 0.0116255
0.955284 1.46733 0.329887 0.0235341
0.894101 1.39368 0.275877 0.0508487
0.86619 1.47247 0.316423 0.0386206
0.807624 1.38899 0.265507 0.0407566
0.404361 0.80308 -0.108916 0.034922
0.49904 0.711525 -0.198637 0.0233748
0.439604 0.627017 -0.25612 0.0196285
0.382065 0.543497 -0.304775 0.0160802
0.420285 0.716067 -0.186118 0.0308599
0.359879 0.630434 -0.24608 0.0244521
0.300918 0.545702 -0.297942 0.01895
0.340599 0.71773 -0.178797 0.0309772
0.27967 0.632068 -0.23896 0.0249984
0.219777 0.546949 -0.292258 0.0196299
0.32305 0.460057 -0.351362 0.0132492
0.261997 0.376574 -0.397013 0.0102652
0.198638 0.292971 -0.44186 0.00727254
0.24119 0.461474 -0.346315 0.0147763
0.179753 0.377453 -0.392931 0.0110233
0.116179 0.293476 -0.4385 0.00750865
0.15942 0.46235 -0.341757 0.0150954
0.0976259 0.378016 -0.38911 0.0110364
0.0338286 0.293792 -0.435275 0.00731746
0.132731 0.209254 -0.486286 0.00436842
0.0639829 0.125474 -0.530813 0.00188213
1.9921 0.0417938 -0.576257 0.000332946
0.0501153 0.209499 -0.483607 0.00432754
1.98118 0.125554 -0.528969 0.00176185
1.90901 0.0418029 -0.575512 0.000278263
1.96759 0.209637 -0.481036 0.00406518
1.89844 0.125586 -0.527223 0.00156352
1.82593 0.0418017 -0.574821 0.000212337
1.17458 1.95845 0.579714 2.52305e-05
1.10229 1.87562 0.537313 0.000926401
1.03292 1.79319 0.49323 0.00353834
1.09103 1.95847 0.579141 0.000166721
1.01838 1.87571 0.53554 0.00143406
0.948653 1.79338 0.490297 0.004508
1.00745 1.9585 0.578362 0.0002814
0.934381 1.87576 0.533337 0.00185141
0.864245 1.7934 0.48667 0.00524117
0.966554 1.71121 0.44858 0.00768219
0.902858 1.6301 0.403892 0.0144272
0.840239 1.5502 0.355515 0.0258506
0.881769 1.7115 0.444228 0.00943232
0.816975 1.63006 0.396086 0.0164525
0.753827 1.54759 0.344749 0.0207557
0.796806 1.71119 0.438532 0.00987444
0.731689 1.62855 0.388585 0.0135588
0.669223 1.54486 0.338831 0.0140518
0.778873 1.46785 0.302937 0.0299288
0.722624 1.38226 0.258836 0.0256843
0.666907 1.29983 0.208959 0.0329937
0.694168 1.46334 0.296973 0.0193604
0.636693 1.38036 0.249337 0.0231509
0.582067 1.29534 0.203487 0.0195062
0.60962 1.46089 0.29096 0.0144713
0.552099 1.37651 0.242541 0.0125734
0.497156 1.29226 0.198664 0.00919527
0.527183 1.21162 0.156241 0.0178822
0.468706 1.13051 0.100804 0.0213091
0.416766 1.04607 0.0603605 0.0149876
0.439836 1.2108 0.146949 0.0128654
0.383402 1.12736 0.0968515 0.00943585
0.330607 1.0439 0.0554737 0.00677284
0.385768 0.884965 -0.0397957 0.0278697
0.320434 0.80184 -0.112358 0.0308414
0.362285 0.964489 0.0159082 0.0166394
0.29931 0.883703 -0.050362 0.0240525
0.236944 0.800656 -0.115906 0.0255847
0.274022 0.963318 0.00356601 0.0136642
0.21351 0.882156 -0.0585248 0.0195135
0.152779 0.799228 -0.120099 0.0210267
0.258808 0.717197 -0.176921 0.0274323
0.198241 0.632229 -0.235252 0.0232094
0.138146 0.547354 -0.288304 0.0187142
0.176107 0.71643 -0.17697 0.0239544
0.116055 0.631887 -0.233319 0.0207593
0.0560388 0.547285 -0.285615 0.0170637
0.0929051 0.715468 -0.17811 0.0203184
0.0333486 0.631297 -0.232532 0.0180897
1.97356 0.546949 -0.283829 0.0149909
0.0774828 0.462727 -0.338047 0.0144642
0.015463 0.378274 -0.385751 0.0104499
1.95149 0.293923 -0.432354 0.00676383
1.99531 0.462751 -0.335144 0.0132041
1.9332 0.378292 -0.382923 0.00941666
1.86912 0.293901 -0.429824 0.00591658
1.91291 0.462545 -0.332921 0.0115243
1.8508 0.378131 -0.380636 0.00802664
1.78666 0.293752 -0.427766 0.00480532
1.88508 0.209673 -0.478692 0.00361371
1.8157 0.125576 -0.525665 0.00129537
1.74286 0.0417909 -0.574233 0.000136181
1.80255 0.20962 -0.476687 0.00299414
1.73294 0.125527 -0.52438 0.00096062
1.65976 0.0417711 -0.573778 4.99759e-05
1.71995 0.209488 -0.475112 0.00220881
1.65012 0.125437 -0.523479 0.000551224
1.57663 0.0417426 -0.573523 -5.10997e-05
0.923837 1.95851 0.577415 0.00038893
0.850352 1.87573 0.530793 0.00212664
0.779865 1.79313 0.482588 0.00524626
0.840227 1.9585 0.576358 0.000458376
0.766401 1.87559 0.528159 0.0020935
0.695758 1.79261 0.478871 0.00429558
0.756662 1.95846 0.5753 0.000471652
0.682644 1.87536 0.525844 0.0017111
0.612029 1.79202 0.476105 0.00288083
0.712211 1.71028 0.433156 0.00814437
0.647308 1.62682 0.383414 0.00936673
0.585199 1.5428 0.33457 0.00899583
0.628189 1.70922 0.429236 0.00556697
0.563549 1.62532 0.380022 0.00536737
0.501626 1.54106 0.331592 0.00377379
0.544648 1.70826 0.426733 0.00291561
0.480221 1.62412 0.378081 0.00160324
0.418403 1.53981 0.33023 -0.000687892
0.525536 1.45845 0.286106 0.00731038
0.468363 1.37408 0.240038 0.00412772
0.411888 1.29129 0.192819 0.0049511
0.442082 1.45673 0.284097 0.00117604
0.384298 1.373 0.237314 -0.000381125
0.326941 1.28988 0.188262 -0.000987572
0.358695 1.45568 0.282952 -0.00309816
0.300303 1.37197 0.234946 -0.00478239
0.242635 1.28852 0.185619 -0.00634947
0.354706 1.20847 0.141584 0.0042126
0.299129 1.12485 0.094264 0.00104658
0.24429 1.04282 0.0476795 0.00369907
0.270102 1.20658 0.138739 -0.00284211
0.214191 1.12371 0.0904737 -0.00286169
0.157937 1.04208 0.0394938 0.00151079
0.18563 1.20533 0.135984 -0.00726172
0.128928 1.12287 0.0852547 -0.00547163
0.0718312 1.04121 0.0316864 -0.00109855
0.186868 0.962068 -0.00711968 0.0104877
0.127635 0.880501 -0.0662366 0.0150184
0.0683075 0.797859 -0.124409 0.0170354
0.100336 0.960864 -0.0160624 0.00703858
0.0420029 0.87915 -0.073068 0.01131
1.98366 0.796668 -0.128659 0.0135766
0.0142002 0.95978 -0.0240382 0.00394836
1.9565 0.878039 -0.0793878 0.00815404
1.899 0.795647 -0.132579 0.0104806
0.00928099 0.714459 -0.179858 0.0169618
1.95028 0.630592 -0.232427 0.0152828
1.8908 0.546457 -0.282698 0.0125979
1.92543 0.713501 -0.181771 0.0137892
1.86696 0.629828 -0.232773 0.0122777
1.80782 0.545855 -0.282166 0.00985741
1.84146 0.712546 -0.183654 0.0104297
1.78344 0.62898 -0.233501 0.00882095
1.72465 0.545149 -0.282234 0.00670371
1.83032 0.46218 -0.331314 0.0094815
1.76827 0.377833 -0.378911 0.0063021
1.7041 0.293486 -0.426267 0.00341217
1.74755 0.461689 -0.330304 0.00707428
1.68561 0.377389 -0.37781 0.00419199
1.6214 0.293084 -0.425462 0.00168081
1.66464 0.461052 -0.32992 0.00420396
1.60279 0.376762 -0.37746 0.00160085
1.53851 0.292511 -0.425542 -0.000431864
1.63726 0.209268 -0.47411 0.00122755
1.56719 0.125303 -0.523057 5.68115e-05
1.49344 0.0417005 -0.573509 -0.000167867
1.55441 0.208951 -0.473824 2.95324e-05
1.48413 0.125121 -0.523262 -0.000520894
1.41018 0.0416505 -0.573798 -0.000288226
1.47134 0.208517 -0.474444 -0.00137401
1.40086 0.124892 -0.524178 -0.00113628
1.32681 0.0415924 -0.574407 -0.00039971
2.17407 1.9582 0.574822 -0.00020951
2.1843 1.87443 0.525666 -0.00129807
2.19745 1.79038 0.476686 -0.00299489
2.11492 1.79033 0.478696 -0.00361434
2.10156 1.87441 0.527225 -0.00156284
2.09099 1.9582 0.575512 -0.00028173
2.03241 1.79037 0.481038 -0.00406595
2.01882 1.87445 0.528968 -0.00175954
2.0079 1.95821 0.57626 -0.000334397
-0.0752228 1.95822 0.577019 -0.000369131
-0.0639771 1.87453 0.530814 -0.00188353
-0.0501182 1.79051 0.483613 -0.00432805
-0.132733 1.79075 0.486289 -0.00436901
-0.14688 1.87466 0.532651 -0.0019115
-0.158409 1.95826 0.577758 -0.000395749
-0.215502 1.79108 0.488907 -0.00416907
-0.229916 1.87481 0.534373 -0.00183987
-0.241655 1.95829 0.578412 -0.000396435
2.13088 1.7061 0.429827 -0.00591793
2.08709 1.53746 0.332921 -0.0115244
2.1492 1.62187 0.380633 -0.00802763
2.21334 1.70625 0.427769 -0.00480693
2.16968 1.53782 0.331309 -0.00948434
2.23173 1.62216 0.378907 -0.00630234
2.06681 1.62171 0.382923 -0.00941564
2.04851 1.70608 0.432357 -0.00676406
2.00469 1.53725 0.335143 -0.0132058
-0.116183 1.70652 0.438501 -0.00750733
-0.159419 1.53764 0.341751 -0.015095
-0.0976262 1.62198 0.389109 -0.0110375
-0.0338249 1.70621 0.435275 -0.00731981
-0.0774889 1.53727 0.338046 -0.0144644
-0.0154609 1.62172 0.385746 -0.0104507
-0.179754 1.62254 0.392927 -0.0110247
-0.19864 1.70703 0.44186 -0.00727413
-0.241187 1.53852 0.346309 -0.0147774
2.24263 1.28852 0.185619 -0.00634947
2.10919 1.45355 0.282703 -0.0125976
2.07457 1.28649 0.181766 -0.0137898
2.13304 1.37017 0.232773 -0.0122792
2.19218 1.45415 0.282168 -0.00985828
2.15855 1.28745 0.183654 -0.0104318
2.21656 1.37103 0.233505 -0.00882091
2.04972 1.36941 0.232429 -0.0152831
2.02644 1.45305 0.283831 -0.014991
-0.13815 1.45265 0.288305 -0.0187152
-0.176105 1.28357 0.176971 -0.023956
-0.116057 1.36812 0.233331 -0.0207599
-0.0560329 1.45272 0.285615 -0.0170645
-0.0929051 1.28453 0.17811 -0.0203196
-0.0333442 1.36871 0.232537 -0.018091
-0.00928357 1.28554 0.179859 -0.016964
-0.198242 1.36777 0.23525 -0.0232084
-0.219779 1.45305 0.292263 -0.0196315
2.07183 1.04121 0.0316864 -0.00109855
2.12893 1.12287 0.0852547 -0.00547163
2.18563 1.20533 0.135984 -0.00726172
2.15794 1.04208 0.0394938 0.00151079
2.21419 1.12371 0.0904737 -0.00286169
2.24429 1.04282 0.0476795 0.00369907
2.04351 1.12196 0.0793902 -0.0081554
2.10101 1.20435 0.132574 -0.0104839
2.01634 1.20333 0.128658 -0.013578
-0.21351 1.11784 0.0585221 -0.0195152
-0.15278 1.20077 0.120097 -0.0210274
-0.186867 1.03793 0.00711933 -0.0104913
-0.127638 1.1195 0.0662386 -0.0150197
-0.0683119 1.20214 0.124403 -0.0170373
-0.10033 1.03914 0.0160606 -0.00704178
-0.0420035 1.12085 0.0730666 -0.0113138
-0.0141937 1.04023 0.0240445 -0.00394944
-0.236939 1.19935 0.115909 -0.0255876
2.0142 0.95978 -0.0240382 0.00394836
2.042 0.87915 -0.073068 0.01131
2.10034 0.960864 -0.0160624 0.00703858
2.06831 0.797859 -0.124409 0.0170354
2.12763 0.880501 -0.0662366 0.0150184
2.18687 0.962068 -0.00711968 0.0104877
2.15278 0.799228 -0.120099 0.0210267
2.21351 0.882156 -0.0585248 0.0195135
2.23694 0.800656 -0.115906 0.0255847
-0.101003 0.795647 -0.132579 0.0104806
-0.0435045 0.878039 -0.0793878 0.00815404
-0.244285 0.957181 -0.0476805 -0.003701
-0.214192 0.876287 -0.0904771 0.00285823
-0.157939 0.95792 -0.0394887 -0.00151009
-0.185629 0.794669 -0.135985 0.00726112
-0.128926 0.87713 -0.0852528 0.00546897
-0.0718278 0.958799 -0.0316853 0.00109451
-0.0163401 0.796668 -0.128659 0.0135766
2.00928 0.714459 -0.179858 0.0169618
2.03335 0.631297 -0.232532 0.0180897
2.09291 0.715468 -0.17811 0.0203184
2.05604 0.547285 -0.285615 0.0170637
2.11606 0.631887 -0.233319 0.0207593
2.17611 0.71643 -0.17697 0.0239544
2.13815 0.547354 -0.288304 0.0187142
2.19824 0.632229 -0.235252 0.0232094
2.21978 0.546949 -0.292258 0.0196299
-0.216557 0.62898 -0.233501 0.00882095
-0.158542 0.712546 -0.183654 0.0104297
-0.192182 0.545855 -0.282166 0.00985741
-0.133038 0.629828 -0.232773 0.0122777
-0.07457 0.713501 -0.181771 0.0137892
-0.109198 0.546457 -0.282698 0.0125979
-0.242633 0.711475 -0.185626 0.00634697
-0.0497177 0.630592 -0.232427 0.0152828
-0.0264365 0.546949 -0.283829 0.0149909
2.01546 0.378274 -0.385751 0.0104499
2.07748 0.462727 -0.338047 0.0144642
2.03383 0.293792 -0.435275 0.00731746
2.09763 0.378016 -0.38911 0.0110364
2.15942 0.46235 -0.341757 0.0150954
2.11618 0.293476 -0.4385 0.00750865
2.17975 0.377453 -0.392931 0.0110233
2.19864 0.292971 -0.44186 0.00727254
2.24119 0.461474 -0.346315 0.0147763
-0.231728 0.377833 -0.378911 0.0063021
-0.169681 0.46218 -0.331314 0.0094815
-0.213339 0.293752 -0.427766 0.00480532
-0.1492 0.378131 -0.380636 0.00802664
-0.0870886 0.462545 -0.332921 0.0115243
-0.130881 0.293901 -0.429824 0.00591658
-0.0668048 0.378292 -0.382923 0.00941666
-0.0485051 0.293923 -0.432354 0.00676383
-0.00469071 0.462751 -0.335144 0.0132041
2.05012 0.209499 -0.483607 0.00432754
2.06398 0.125474 -0.530813 0.00188213
2.07522 0.0417733 -0.577021 0.000373059
2.13273 0.209254 -0.486286 0.00436842
2.14688 0.125349 -0.53265 0.00190876
2.1584 0.0417433 -0.577755 0.000394486
2.21551 0.208922 -0.488905 0.00416971
2.22992 0.125198 -0.534366 0.00184026
2.24165 0.0417091 -0.578414 0.000397518
-0.197446 0.20962 -0.476687 0.00299414
-0.1843 0.125576 -0.525665 0.00129537
-0.174069 0.0418017 -0.574821 0.000212337