title='particle position' 
variables=x, y, Ux, Uy 
zone t='Wall' 
0.0441681  0.0408333  -0.00213751  3.00794e-09
0.0441697  0.0425  -0.00505938  -5.79449e-09
0.0441707  0.0441667  -0.00702926  -7.88567e-09
0.0425014  0.0408333  -0.00213751  3.00794e-09
0.042503  0.0425  -0.00505938  -5.79449e-09
0.042504  0.0441667  -0.00702926  -7.88567e-09
0.0408348  0.0408333  -0.00213751  3.00793e-09
0.0408364  0.0425  -0.00505938  -5.7945e-09
0.0408373  0.0441667  -0.00702926  -7.88567e-09
0.0358373  0.0441667  -0.00702926  -7.88567e-09
0.0358364  0.0425  -0.00505938  -5.79449e-09
0.0358348  0.0408333  -0.00213751  3.00793e-09
0.037504  0.0441667  -0.00702926  -7.88567e-09
0.037503  0.0425  -0.00505938  -5.79449e-09
0.0375014  0.0408333  -0.00213751  3.00793e-09
0.0391707  0.0441667  -0.00702926  -7.88567e-09
0.0391697  0.0425  -0.00505938  -5.79449e-09
0.0391681  0.0408333  -0.00213751  3.00793e-09
0.0308373  0.0441667  -0.00702926  -7.88567e-09
0.0308364  0.0425  -0.00505938  -5.79449e-09
0.0308348  0.0408333  -0.00213751  3.00793e-09
0.032504  0.0441667  -0.00702926  -7.88567e-09
0.032503  0.0425  -0.00505938  -5.79449e-09
0.0325014  0.0408333  -0.00213751  3.00793e-09
0.0341707  0.0441667  -0.00702926  -7.88567e-09
0.0341697  0.0425  -0.00505938  -5.79449e-09
0.0341681  0.0408333  -0.00213751  3.00793e-09
0.0258373  0.0441667  -0.00702926  -7.88567e-09
0.0258364  0.0425  -0.00505938  -5.79449e-09
0.0258348  0.0408333  -0.00213751  3.00793e-09
0.027504  0.0441667  -0.00702926  -7.88567e-09
0.027503  0.0425  -0.00505938  -5.79449e-09
0.0275014  0.0408333  -0.00213751  3.00793e-09
0.0291707  0.0441667  -0.00702926  -7.88567e-09
0.0291697  0.0425  -0.00505938  -5.79449e-09
0.0291681  0.0408333  -0.00213751  3.00793e-09
0.0208373  0.0441667  -0.00702926  -7.88567e-09
0.0208364  0.0425  -0.00505938  -5.79449e-09
0.0208348  0.0408333  -0.00213751  3.00793e-09
0.022504  0.0441667  -0.00702926  -7.88567e-09
0.022503  0.0425  -0.00505938  -5.79449e-09
0.0225014  0.0408333  -0.00213751  3.00793e-09
0.0241707  0.0441667  -0.00702926  -7.88567e-09
0.0241697  0.0425  -0.00505938  -5.79449e-09
0.0241681  0.0408333  -0.00213751  3.00793e-09
0.0158373  0.0441667  -0.00702926  -7.88567e-09
0.0158364  0.0425  -0.00505938  -5.79449e-09
0.0158348  0.0408333  -0.00213751  3.00793e-09
0.017504  0.0441667  -0.00702926  -7.88567e-09
0.017503  0.0425  -0.00505938  -5.79449e-09
0.0175014  0.0408333  -0.00213751  3.00793e-09
0.0191707  0.0441667  -0.00702926  -7.88567e-09
0.0191697  0.0425  -0.00505938  -5.79449e-09
0.0191681  0.0408333  -0.00213751  3.00793e-09
0.0108373  0.0441667  -0.00702926  -7.88566e-09
0.0108364  0.0425  -0.00505938  -5.79449e-09
0.0108348  0.0408333  -0.00213751  3.00794e-09
0.012504  0.0441667  -0.00702926  -7.88567e-09
0.012503  0.0425  -0.00505938  -5.79449e-09
0.0125014  0.0408333  -0.00213751  3.00793e-09
0.0141707  0.0441667  -0.00702926  -7.88567e-09
0.0141697  0.0425  -0.00505938  -5.79449e-09
0.0141681  0.0408333  -0.00213751  3.00793e-09
0.00583732  0.0441667  -0.00702926  -7.88567e-09
0.00583638  0.0425  -0.00505938  -5.79449e-09
0.00583475  0.0408333  -0.00213751  3.00794e-09
0.00750399  0.0441667  -0.00702926  -7.88566e-09
0.00750305  0.0425  -0.00505938  -5.79449e-09
0.00750142  0.0408333  -0.00213751  3.00794e-09
0.00917066  0.0441667  -0.00702926  -7.88566e-09
0.00916971  0.0425  -0.00505938  -5.79449e-09
0.00916809  0.0408333  -0.00213751  3.00794e-09
0.000837324  0.0441667  -0.00702926  -7.88567e-09
0.000836381  0.0425  -0.00505938  -5.7945e-09
0.000834753  0.0408333  -0.00213751  3.00793e-09
0.00250399  0.0441667  -0.00702926  -7.88567e-09
0.00250305  0.0425  -0.00505938  -5.79449e-09
0.00250142  0.0408333  -0.00213751  3.00794e-09
0.00417066  0.0441667  -0.00702926  -7.88567e-09
0.00416971  0.0425  -0.00505938  -5.79449e-09
0.00416809  0.0408333  -0.00213751  3.00794e-09
-0.000831914  0.0408333  -0.00213751  3.00793e-09
-0.000830285  0.0425  -0.00505938  -5.79449e-09
-0.000829343  0.0441667  -0.00702926  -7.88567e-09
-0.00249858  0.0408333  -0.00213751  3.00793e-09
-0.00249695  0.0425  -0.00505938  -5.79449e-09
-0.00249601  0.0441667  -0.00702926  -7.88567e-09
-0.00416525  0.0408333  -0.00213751  3.00793e-09
-0.00416362  0.0425  -0.00505938  -5.79449e-09
-0.00416268  0.0441667  -0.00702926  -7.88567e-09
0.0441707  -0.00416667  -0.00702926  7.88568e-09
0.0441697  -0.0025  -0.00505938  5.79451e-09
0.0441681  -0.000833333  -0.00213751  -3.00792e-09
0.042504  -0.00416667  -0.00702926  7.88568e-09
0.042503  -0.0025  -0.00505938  5.79451e-09
0.0425014  -0.000833333  -0.00213751  -3.00792e-09
0.0408373  -0.00416667  -0.00702926  7.88568e-09
0.0408364  -0.0025  -0.00505938  5.79451e-09
0.0408348  -0.000833333  -0.00213751  -3.00792e-09
0.0358348  -0.000833333  -0.00213751  -3.00792e-09
0.0358364  -0.0025  -0.00505938  5.79451e-09
0.0358373  -0.00416667  -0.00702926  7.88568e-09
0.0375014  -0.000833333  -0.00213751  -3.00792e-09
0.037503  -0.0025  -0.00505938  5.79451e-09
0.037504  -0.00416667  -0.00702926  7.88568e-09
0.0391681  -0.000833333  -0.00213751  -3.00792e-09
0.0391697  -0.0025  -0.00505938  5.79451e-09
0.0391707  -0.00416667  -0.00702926  7.88568e-09
0.0308348  -0.000833333  -0.00213751  -3.00792e-09
0.0308364  -0.0025  -0.00505938  5.79451e-09
0.0308373  -0.00416667  -0.00702926  7.88568e-09
0.0325014  -0.000833333  -0.00213751  -3.00792e-09
0.032503  -0.0025  -0.00505938  5.79451e-09
0.032504  -0.00416667  -0.00702926  7.88568e-09
0.0341681  -0.000833333  -0.00213751  -3.00792e-09
0.0341697  -0.0025  -0.00505938  5.79451e-09
0.0341707  -0.00416667  -0.00702926  7.88568e-09
0.0258348  -0.000833333  -0.00213751  -3.00792e-09
0.0258364  -0.0025  -0.00505938  5.79451e-09
0.0258373  -0.00416667  -0.00702926  7.88568e-09
0.0275014  -0.000833333  -0.00213751  -3.00792e-09
0.027503  -0.0025  -0.00505938  5.79451e-09
0.027504  -0.00416667  -0.00702926  7.88568e-09
0.0291681  -0.000833333  -0.00213751  -3.00792e-09
0.0291697  -0.0025  -0.00505938  5.79451e-09
0.0291707  -0.00416667  -0.00702926  7.88568e-09
0.0208348  -0.000833333  -0.00213751  -3.00793e-09
0.0208364  -0.0025  -0.00505938  5.79451e-09
0.0208373  -0.00416667  -0.00702926  7.88568e-09
0.0225014  -0.000833333  -0.00213751  -3.00792e-09
0.022503  -0.0025  -0.00505938  5.79451e-09
0.022504  -0.00416667  -0.00702926  7.88568e-09
0.0241681  -0.000833333  -0.00213751  -3.00792e-09
0.0241697  -0.0025  -0.00505938  5.79451e-09
0.0241707  -0.00416667  -0.00702926  7.88568e-09
0.0158348  -0.000833333  -0.00213751  -3.00792e-09
0.0158364  -0.0025  -0.00505938  5.79451e-09
0.0158373  -0.00416667  -0.00702926  7.88568e-09
0.0175014  -0.000833333  -0.00213751  -3.00792e-09
0.017503  -0.0025  -0.00505938  5.79451e-09
0.017504  -0.00416667  -0.00702926  7.88568e-09
0.0191681  -0.000833333  -0.00213751  -3.00793e-09
0.0191697  -0.0025  -0.00505938  5.79451e-09
0.0191707  -0.00416667  -0.00702926  7.88569e-09
0.0108348  -0.000833333  -0.00213751  -3.00792e-09
0.0108364  -0.0025  -0.00505938  5.79451e-09
0.0108373  -0.00416667  -0.00702926  7.88568e-09
0.0125014  -0.000833333  -0.00213751  -3.00792e-09
0.012503  -0.0025  -0.00505938  5.79451e-09
0.012504  -0.00416667  -0.00702926  7.88568e-09
0.0141681  -0.000833333  -0.00213751  -3.00792e-09
0.0141697  -0.0025  -0.00505938  5.79451e-09
0.0141707  -0.00416667  -0.00702926  7.88568e-09
0.00583475  -0.000833333  -0.00213751  -3.00792e-09
0.00583638  -0.0025  -0.00505938  5.79451e-09
0.00583732  -0.00416667  -0.00702926  7.88568e-09
0.00750142  -0.000833333  -0.00213751  -3.00792e-09
0.00750305  -0.0025  -0.00505938  5.79451e-09
0.00750399  -0.00416667  -0.00702926  7.88568e-09
0.00916809  -0.000833333  -0.00213751  -3.00792e-09
0.00916971  -0.0025  -0.00505938  5.79451e-09
0.00917066  -0.00416667  -0.00702926  7.88568e-09
0.000834753  -0.000833333  -0.00213751  -3.00792e-09
0.000836381  -0.0025  -0.00505938  5.79451e-09
0.000837324  -0.00416667  -0.00702926  7.88568e-09
0.00250142  -0.000833333  -0.00213751  -3.00792e-09
0.00250305  -0.0025  -0.00505938  5.79451e-09
0.00250399  -0.00416667  -0.00702926  7.88568e-09
0.00416809  -0.000833333  -0.00213751  -3.00792e-09
0.00416971  -0.0025  -0.00505938  5.79451e-09
0.00417066  -0.00416667  -0.00702926  7.88568e-09
-0.000829343  -0.00416667  -0.00702926  7.88568e-09
-0.000830285  -0.0025  -0.00505938  5.79451e-09
-0.000831914  -0.000833333  -0.00213751  -3.00792e-09
-0.00249601  -0.00416667  -0.00702926  7.88568e-09
-0.00249695  -0.0025  -0.00505938  5.79451e-09
-0.00249858  -0.000833333  -0.00213751  -3.00792e-09
-0.00416268  -0.00416667  -0.00702926  7.88568e-09
-0.00416362  -0.0025  -0.00505938  5.79451e-09
-0.00416525  -0.000833333  -0.00213751  -3.00792e-09
zone t='Air' 
0.0391681  0.0391667  0.00213751  -3.00793e-09
0.0391697  0.0375  0.00505938  5.79449e-09
0.0391707  0.0358333  0.00702926  7.88567e-09
0.0375014  0.0391667  0.00213751  -3.00793e-09
0.037503  0.0375  0.00505938  5.79449e-09
0.037504  0.0358333  0.00702926  7.88567e-09
0.0358348  0.0391667  0.00213751  -3.00793e-09
0.0358364  0.0375  0.00505938  5.79449e-09
0.0358373  0.0358333  0.00702926  7.88567e-09
0.0391712  0.0341667  0.00829785  5.83221e-09
0.0391715  0.0325  0.00907891  3.6449e-09
0.0391716  0.0308333  0.00953827  2.05849e-09
0.0375045  0.0341667  0.00829785  5.83222e-09
0.0375048  0.0325  0.00907891  3.6449e-09
0.0375049  0.0308333  0.00953827  2.05849e-09
0.0358378  0.0341667  0.00829785  5.83222e-09
0.0358381  0.0325  0.00907891  3.6449e-09
0.0358383  0.0308333  0.00953827  2.05849e-09
0.0391717  0.0291667  0.00979627  1.08427e-09
0.0391717  0.0275  0.00993466  5.40648e-10
0.0391717  0.0258333  0.0100056  2.56938e-10
0.037505  0.0291667  0.00979627  1.08426e-09
0.037505  0.0275  0.00993466  5.40647e-10
0.0375051  0.0258333  0.0100056  2.56941e-10
0.0358383  0.0291667  0.00979627  1.08426e-09
0.0358384  0.0275  0.00993466  5.40647e-10
0.0358384  0.0258333  0.0100056  2.56942e-10
0.0391717  0.0241667  0.0100401  1.16142e-10
0.0391717  0.0225  0.0100559  4.80595e-11
0.0391717  0.0208333  0.010062  1.29045e-11
0.0375051  0.0241667  0.0100401  1.1615e-10
0.0375051  0.0225  0.0100559  4.80586e-11
0.0375051  0.0208333  0.010062  1.29009e-11
0.0358384  0.0241667  0.0100401  1.16153e-10
0.0358384  0.0225  0.0100559  4.80583e-11
0.0358384  0.0208333  0.010062  1.2899e-11
0.0391717  0.0191667  0.010062  -1.29229e-11
0.0391717  0.0175  0.0100559  -4.80626e-11
0.0391717  0.0158333  0.0100401  -1.1615e-10
0.0375051  0.0191667  0.010062  -1.29182e-11
0.0375051  0.0175  0.0100559  -4.80613e-11
0.0375051  0.0158333  0.0100401  -1.16156e-10
0.0358384  0.0191667  0.010062  -1.29155e-11
0.0358384  0.0175  0.0100559  -4.80596e-11
0.0358384  0.0158333  0.0100401  -1.16158e-10
0.0391717  0.0141667  0.0100056  -2.56935e-10
0.0391717  0.0125  0.00993466  -5.40612e-10
0.0391717  0.0108333  0.00979627  -1.08424e-09
0.0375051  0.0141667  0.0100056  -2.5694e-10
0.037505  0.0125  0.00993466  -5.40612e-10
0.037505  0.0108333  0.00979627  -1.08424e-09
0.0358384  0.0141667  0.0100056  -2.56943e-10
0.0358384  0.0125  0.00993466  -5.40614e-10
0.0358383  0.0108333  0.00979627  -1.08424e-09
0.0391716  0.00916667  0.00953827  -2.05849e-09
0.0391715  0.0075  0.00907891  -3.64491e-09
0.0391712  0.00583333  0.00829785  -5.83222e-09
0.0375049  0.00916667  0.00953827  -2.05849e-09
0.0375048  0.0075  0.00907891  -3.6449e-09
0.0375045  0.00583333  0.00829785  -5.83222e-09
0.0358383  0.00916667  0.00953827  -2.05849e-09
0.0358381  0.0075  0.00907891  -3.64491e-09
0.0358378  0.00583333  0.00829785  -5.83223e-09
0.0391707  0.00416667  0.00702926  -7.88568e-09
0.0391697  0.0025  0.00505938  -5.79451e-09
0.0391681  0.000833333  0.00213751  3.00792e-09
0.037504  0.00416667  0.00702926  -7.88568e-09
0.037503  0.0025  0.00505938  -5.79451e-09
0.0375014  0.000833333  0.00213751  3.00792e-09
0.0358373  0.00416667  0.00702926  -7.88568e-09
0.0358364  0.0025  0.00505938  -5.79451e-09
0.0358348  0.000833333  0.00213751  3.00792e-09
0.0341681  0.0391667  0.00213751  -3.00793e-09
0.0341697  0.0375  0.00505938  5.79449e-09
0.0341707  0.0358333  0.00702926  7.88567e-09
0.0325014  0.0391667  0.00213751  -3.00793e-09
0.032503  0.0375  0.00505938  5.79449e-09
0.032504  0.0358333  0.00702926  7.88567e-09
0.0308348  0.0391667  0.00213751  -3.00793e-09
0.0308364  0.0375  0.00505938  5.79449e-09
0.0308373  0.0358333  0.00702926  7.88567e-09
0.0341712  0.0341667  0.00829785  5.83222e-09
0.0341715  0.0325  0.00907891  3.6449e-09
0.0341716  0.0308333  0.00953827  2.05848e-09
0.0325045  0.0341667  0.00829785  5.83222e-09
0.0325048  0.0325  0.00907891  3.6449e-09
0.0325049  0.0308333  0.00953827  2.05848e-09
0.0308378  0.0341667  0.00829785  5.83222e-09
0.0308381  0.0325  0.00907891  3.6449e-09
0.0308383  0.0308333  0.00953827  2.05849e-09
0.0341717  0.0291667  0.00979627  1.08426e-09
0.0341717  0.0275  0.00993466  5.40649e-10
0.0341717  0.0258333  0.0100056  2.56942e-10
0.032505  0.0291667  0.00979627  1.08426e-09
0.032505  0.0275  0.00993466  5.40648e-10
0.0325051  0.0258333  0.0100056  2.56942e-10
0.0308383  0.0291667  0.00979627  1.08426e-09
0.0308384  0.0275  0.00993466  5.40647e-10
0.0308384  0.0258333  0.0100056  2.56942e-10
0.0341717  0.0241667  0.0100401  1.16155e-10
0.0341717  0.0225  0.0100559  4.80599e-11
0.0341717  0.0208333  0.010062  1.28995e-11
0.0325051  0.0241667  0.0100401  1.16156e-10
0.0325051  0.0225  0.0100559  4.80613e-11
0.0325051  0.0208333  0.010062  1.28997e-11
0.0308384  0.0241667  0.0100401  1.16158e-10
0.0308384  0.0225  0.0100559  4.80622e-11
0.0308384  0.0208333  0.010062  1.28997e-11
0.0341717  0.0191667  0.010062  -1.29157e-11
0.0341717  0.0175  0.0100559  -4.80599e-11
0.0341717  0.0158333  0.0100401  -1.16158e-10
0.0325051  0.0191667  0.010062  -1.2916e-11
0.0325051  0.0175  0.0100559  -4.80605e-11
0.0325051  0.0158333  0.0100401  -1.16159e-10
0.0308384  0.0191667  0.010062  -1.29165e-11
0.0308384  0.0175  0.0100559  -4.80604e-11
0.0308384  0.0158333  0.0100401  -1.16161e-10
0.0341717  0.0141667  0.0100056  -2.56944e-10
0.0341717  0.0125  0.00993466  -5.40615e-10
0.0341717  0.0108333  0.00979627  -1.08424e-09
0.0325051  0.0141667  0.0100056  -2.56944e-10
0.032505  0.0125  0.00993466  -5.40615e-10
0.032505  0.0108333  0.00979627  -1.08424e-09
0.0308384  0.0141667  0.0100056  -2.56944e-10
0.0308384  0.0125  0.00993466  -5.40615e-10
0.0308383  0.0108333  0.00979627  -1.08424e-09
0.0341716  0.00916667  0.00953827  -2.05849e-09
0.0341715  0.0075  0.00907891  -3.64491e-09
0.0341712  0.00583333  0.00829785  -5.83223e-09
0.0325049  0.00916667  0.00953827  -2.05849e-09
0.0325048  0.0075  0.00907891  -3.6449e-09
0.0325045  0.00583333  0.00829785  -5.83223e-09
0.0308383  0.00916667  0.00953827  -2.05849e-09
0.0308381  0.0075  0.00907891  -3.6449e-09
0.0308378  0.00583333  0.00829785  -5.83223e-09
0.0341707  0.00416667  0.00702926  -7.88568e-09
0.0341697  0.0025  0.00505938  -5.79451e-09
0.0341681  0.000833333  0.00213751  3.00792e-09
0.032504  0.00416667  0.00702926  -7.88568e-09
0.032503  0.0025  0.00505938  -5.79451e-09
0.0325014  0.000833333  0.00213751  3.00792e-09
0.0308373  0.00416667  0.00702926  -7.88568e-09
0.0308364  0.0025  0.00505938  -5.79451e-09
0.0308348  0.000833333  0.00213751  3.00792e-09
0.0291681  0.0391667  0.00213751  -3.00793e-09
0.0291697  0.0375  0.00505938  5.79449e-09
0.0291707  0.0358333  0.00702926  7.88567e-09
0.0275014  0.0391667  0.00213751  -3.00793e-09
0.027503  0.0375  0.00505938  5.79449e-09
0.027504  0.0358333  0.00702926  7.88567e-09
0.0258348  0.0391667  0.00213751  -3.00793e-09
0.0258364  0.0375  0.00505938  5.79449e-09
0.0258373  0.0358333  0.00702926  7.88567e-09
0.0291712  0.0341667  0.00829785  5.83222e-09
0.0291715  0.0325  0.00907891  3.6449e-09
0.0291716  0.0308333  0.00953827  2.05849e-09
0.0275045  0.0341667  0.00829785  5.83222e-09
0.0275048  0.0325  0.00907891  3.6449e-09
0.0275049  0.0308333  0.00953827  2.05849e-09
0.0258378  0.0341667  0.00829785  5.83222e-09
0.0258381  0.0325  0.00907891  3.6449e-09
0.0258383  0.0308333  0.00953827  2.05849e-09
0.0291717  0.0291667  0.00979627  1.08426e-09
0.0291717  0.0275  0.00993466  5.40646e-10
0.0291717  0.0258333  0.0100056  2.56942e-10
0.027505  0.0291667  0.00979627  1.08426e-09
0.027505  0.0275  0.00993466  5.40646e-10
0.0275051  0.0258333  0.0100056  2.56943e-10
0.0258383  0.0291667  0.00979627  1.08426e-09
0.0258384  0.0275  0.00993466  5.40647e-10
0.0258384  0.0258333  0.0100056  2.56944e-10
0.0291717  0.0241667  0.0100401  1.16159e-10
0.0291717  0.0225  0.0100559  4.80632e-11
0.0291717  0.0208333  0.010062  1.28996e-11
0.0275051  0.0241667  0.0100401  1.1616e-10
0.0275051  0.0225  0.0100559  4.80643e-11
0.0275051  0.0208333  0.010062  1.28997e-11
0.0258384  0.0241667  0.0100401  1.16161e-10
0.0258384  0.0225  0.0100559  4.80655e-11
0.0258384  0.0208333  0.010062  1.29003e-11
0.0291717  0.0191667  0.010062  -1.29173e-11
0.0291717  0.0175  0.0100559  -4.80606e-11
0.0291717  0.0158333  0.0100401  -1.16163e-10
0.0275051  0.0191667  0.010062  -1.29178e-11
0.0275051  0.0175  0.0100559  -4.80617e-11
0.0275051  0.0158333  0.0100401  -1.16163e-10
0.0258384  0.0191667  0.010062  -1.29188e-11
0.0258384  0.0175  0.0100559  -4.80632e-11
0.0258384  0.0158333  0.0100401  -1.16162e-10
0.0291717  0.0141667  0.0100056  -2.56944e-10
0.0291717  0.0125  0.00993466  -5.40614e-10
0.0291717  0.0108333  0.00979627  -1.08424e-09
0.0275051  0.0141667  0.0100056  -2.56944e-10
0.027505  0.0125  0.00993466  -5.40614e-10
0.027505  0.0108333  0.00979627  -1.08424e-09
0.0258384  0.0141667  0.0100056  -2.56944e-10
0.0258384  0.0125  0.00993466  -5.40616e-10
0.0258383  0.0108333  0.00979627  -1.08424e-09
0.0291716  0.00916667  0.00953827  -2.05849e-09
0.0291715  0.0075  0.00907891  -3.64491e-09
0.0291712  0.00583333  0.00829785  -5.83223e-09
0.0275049  0.00916667  0.00953827  -2.05849e-09
0.0275048  0.0075  0.00907891  -3.64491e-09
0.0275045  0.00583333  0.00829785  -5.83223e-09
0.0258383  0.00916667  0.00953827  -2.05849e-09
0.0258381  0.0075  0.00907891  -3.6449e-09
0.0258378  0.00583333  0.00829785  -5.83223e-09
0.0291707  0.00416667  0.00702926  -7.88568e-09
0.0291697  0.0025  0.00505938  -5.79451e-09
0.0291681  0.000833333  0.00213751  3.00792e-09
0.027504  0.00416667  0.00702926  -7.88568e-09
0.027503  0.0025  0.00505938  -5.79451e-09
0.0275014  0.000833333  0.00213751  3.00792e-09
0.0258373  0.00416667  0.00702926  -7.88568e-09
0.0258364  0.0025  0.00505938  -5.79451e-09
0.0258348  0.000833333  0.00213751  3.00792e-09
0.0241681  0.0391667  0.00213751  -3.00793e-09
0.0241697  0.0375  0.00505938  5.79449e-09
0.0241707  0.0358333  0.00702926  7.88567e-09
0.0225014  0.0391667  0.00213751  -3.00793e-09
0.022503  0.0375  0.00505938  5.79449e-09
0.022504  0.0358333  0.00702926  7.88567e-09
0.0208348  0.0391667  0.00213751  -3.00793e-09
0.0208364  0.0375  0.00505938  5.79449e-09
0.0208373  0.0358333  0.00702926  7.88567e-09
0.0241712  0.0341667  0.00829785  5.83222e-09
0.0241715  0.0325  0.00907891  3.6449e-09
0.0241716  0.0308333  0.00953827  2.05849e-09
0.0225045  0.0341667  0.00829785  5.83222e-09
0.0225048  0.0325  0.00907891  3.6449e-09
0.0225049  0.0308333  0.00953827  2.05849e-09
0.0208378  0.0341667  0.00829785  5.83222e-09
0.0208381  0.0325  0.00907891  3.64489e-09
0.0208383  0.0308333  0.00953827  2.05849e-09
0.0241717  0.0291667  0.00979627  1.08427e-09
0.0241717  0.0275  0.00993466  5.40647e-10
0.0241717  0.0258333  0.0100056  2.56947e-10
0.022505  0.0291667  0.00979627  1.08427e-09
0.022505  0.0275  0.00993466  5.40648e-10
0.0225051  0.0258333  0.0100056  2.56952e-10
0.0208383  0.0291667  0.00979627  1.08427e-09
0.0208384  0.0275  0.00993466  5.40649e-10
0.0208384  0.0258333  0.0100056  2.56959e-10
0.0241717  0.0241667  0.0100401  1.16163e-10
0.0241717  0.0225  0.0100559  4.80656e-11
0.0241717  0.0208333  0.010062  1.29002e-11
0.0225051  0.0241667  0.0100401  1.16166e-10
0.0225051  0.0225  0.0100559  4.8064e-11
0.0225051  0.0208333  0.010062  1.28982e-11
0.0208384  0.0241667  0.0100401  1.1617e-10
0.0208384  0.0225  0.0100559  4.8062e-11
0.0208384  0.0208333  0.010062  1.28945e-11
0.0241717  0.0191667  0.010062  -1.29197e-11
0.0241717  0.0175  0.0100559  -4.80637e-11
0.0241717  0.0158333  0.0100401  -1.16162e-10
0.0225051  0.0191667  0.010062  -1.29176e-11
0.0225051  0.0175  0.0100559  -4.80642e-11
0.0225051  0.0158333  0.0100401  -1.16166e-10
0.0208384  0.0191667  0.010062  -1.29127e-11
0.0208384  0.0175  0.0100559  -4.8064e-11
0.0208384  0.0158333  0.0100401  -1.16171e-10
0.0241717  0.0141667  0.0100056  -2.56946e-10
0.0241717  0.0125  0.00993466  -5.40618e-10
0.0241717  0.0108333  0.00979627  -1.08424e-09
0.0225051  0.0141667  0.0100056  -2.56948e-10
0.022505  0.0125  0.00993466  -5.40619e-10
0.022505  0.0108333  0.00979627  -1.08424e-09
0.0208384  0.0141667  0.0100056  -2.56954e-10
0.0208384  0.0125  0.00993466  -5.40621e-10
0.0208383  0.0108333  0.00979627  -1.08424e-09
0.0241716  0.00916667  0.00953827  -2.05849e-09
0.0241715  0.0075  0.00907891  -3.64491e-09
0.0241712  0.00583333  0.00829785  -5.83223e-09
0.0225049  0.00916667  0.00953827  -2.05849e-09
0.0225048  0.0075  0.00907891  -3.6449e-09
0.0225045  0.00583333  0.00829785  -5.83223e-09
0.0208383  0.00916667  0.00953827  -2.05849e-09
0.0208381  0.0075  0.00907891  -3.6449e-09
0.0208378  0.00583333  0.00829785  -5.83223e-09
0.0241707  0.00416667  0.00702926  -7.88568e-09
0.0241697  0.0025  0.00505938  -5.79451e-09
0.0241681  0.000833333  0.00213751  3.00792e-09
0.022504  0.00416667  0.00702926  -7.88568e-09
0.022503  0.0025  0.00505938  -5.79451e-09
0.0225014  0.000833333  0.00213751  3.00792e-09
0.0208373  0.00416667  0.00702926  -7.88568e-09
0.0208364  0.0025  0.00505938  -5.79451e-09
0.0208348  0.000833333  0.00213751  3.00793e-09
0.0191681  0.0391667  0.00213751  -3.00793e-09
0.0191697  0.0375  0.00505938  5.79449e-09
0.0191707  0.0358333  0.00702926  7.88567e-09
0.0175014  0.0391667  0.00213751  -3.00793e-09
0.017503  0.0375  0.00505938  5.79449e-09
0.017504  0.0358333  0.00702926  7.88567e-09
0.0158348  0.0391667  0.00213751  -3.00793e-09
0.0158364  0.0375  0.00505938  5.79449e-09
0.0158373  0.0358333  0.00702926  7.88567e-09
0.0191712  0.0341667  0.00829785  5.83222e-09
0.0191715  0.0325  0.00907891  3.64489e-09
0.0191716  0.0308333  0.00953827  2.05849e-09
0.0175045  0.0341667  0.00829785  5.83222e-09
0.0175048  0.0325  0.00907891  3.64489e-09
0.0175049  0.0308333  0.00953827  2.05849e-09
0.0158378  0.0341667  0.00829785  5.83222e-09
0.0158381  0.0325  0.00907891  3.6449e-09
0.0158383  0.0308333  0.00953827  2.05848e-09
0.0191717  0.0291667  0.00979627  1.08427e-09
0.0191717  0.0275  0.00993466  5.4065e-10
0.0191717  0.0258333  0.0100056  2.56958e-10
0.017505  0.0291667  0.00979627  1.08427e-09
0.017505  0.0275  0.00993466  5.40651e-10
0.0175051  0.0258333  0.0100056  2.56951e-10
0.0158383  0.0291667  0.00979627  1.08427e-09
0.0158384  0.0275  0.00993466  5.40651e-10
0.0158384  0.0258333  0.0100056  2.56946e-10
0.0191717  0.0241667  0.0100401  1.16169e-10
0.0191717  0.0225  0.0100559  4.80628e-11
0.0191717  0.0208333  0.010062  1.28954e-11
0.0175051  0.0241667  0.0100401  1.16164e-10
0.0175051  0.0225  0.0100559  4.8064e-11
0.0175051  0.0208333  0.010062  1.28987e-11
0.0158384  0.0241667  0.0100401  1.1616e-10
0.0158384  0.0225  0.0100559  4.80628e-11
0.0158384  0.0208333  0.010062  1.28989e-11
0.0191717  0.0191667  0.010062  -1.29134e-11
0.0191717  0.0175  0.0100559  -4.80645e-11
0.0191717  0.0158333  0.0100401  -1.1617e-10
0.0175051  0.0191667  0.010062  -1.29174e-11
0.0175051  0.0175  0.0100559  -4.80643e-11
0.0175051  0.0158333  0.0100401  -1.16165e-10
0.0158384  0.0191667  0.010062  -1.29174e-11
0.0158384  0.0175  0.0100559  -4.8062e-11
0.0158384  0.0158333  0.0100401  -1.16163e-10
0.0191717  0.0141667  0.0100056  -2.56953e-10
0.0191717  0.0125  0.00993466  -5.40621e-10
0.0191717  0.0108333  0.00979627  -1.08424e-09
0.0175051  0.0141667  0.0100056  -2.56948e-10
0.017505  0.0125  0.00993466  -5.40618e-10
0.017505  0.0108333  0.00979627  -1.08424e-09
0.0158384  0.0141667  0.0100056  -2.56945e-10
0.0158384  0.0125  0.00993466  -5.40616e-10
0.0158383  0.0108333  0.00979627  -1.08424e-09
0.0191716  0.00916667  0.00953827  -2.05849e-09
0.0191715  0.0075  0.00907891  -3.6449e-09
0.0191712  0.00583333  0.00829785  -5.83223e-09
0.0175049  0.00916667  0.00953827  -2.05849e-09
0.0175048  0.0075  0.00907891  -3.6449e-09
0.0175045  0.00583333  0.00829785  -5.83223e-09
0.0158383  0.00916667  0.00953827  -2.05849e-09
0.0158381  0.0075  0.00907891  -3.64491e-09
0.0158378  0.00583333  0.00829785  -5.83223e-09
0.0191707  0.00416667  0.00702926  -7.88569e-09
0.0191697  0.0025  0.00505938  -5.79451e-09
0.0191681  0.000833333  0.00213751  3.00793e-09
0.017504  0.00416667  0.00702926  -7.88568e-09
0.017503  0.0025  0.00505938  -5.79451e-09
0.0175014  0.000833333  0.00213751  3.00792e-09
0.0158373  0.00416667  0.00702926  -7.88568e-09
0.0158364  0.0025  0.00505938  -5.79451e-09
0.0158348  0.000833333  0.00213751  3.00792e-09
0.0141681  0.0391667  0.00213751  -3.00793e-09
0.0141697  0.0375  0.00505938  5.79449e-09
0.0141707  0.0358333  0.00702926  7.88567e-09
0.0125014  0.0391667  0.00213751  -3.00793e-09
0.012503  0.0375  0.00505938  5.79449e-09
0.012504  0.0358333  0.00702926  7.88567e-09
0.0108348  0.0391667  0.00213751  -3.00794e-09
0.0108364  0.0375  0.00505938  5.79449e-09
0.0108373  0.0358333  0.00702926  7.88566e-09
0.0141712  0.0341667  0.00829785  5.83222e-09
0.0141715  0.0325  0.00907891  3.6449e-09
0.0141716  0.0308333  0.00953827  2.05848e-09
0.0125045  0.0341667  0.00829785  5.83222e-09
0.0125048  0.0325  0.00907891  3.6449e-09
0.0125049  0.0308333  0.00953827  2.05848e-09
0.0108378  0.0341667  0.00829785  5.83222e-09
0.0108381  0.0325  0.00907891  3.6449e-09
0.0108383  0.0308333  0.00953827  2.05848e-09
0.0141717  0.0291667  0.00979627  1.08426e-09
0.0141717  0.0275  0.00993466  5.4065e-10
0.0141717  0.0258333  0.0100056  2.56944e-10
0.012505  0.0291667  0.00979627  1.08426e-09
0.012505  0.0275  0.00993466  5.40648e-10
0.0125051  0.0258333  0.0100056  2.56943e-10
0.0108383  0.0291667  0.00979627  1.08426e-09
0.0108384  0.0275  0.00993466  5.40648e-10
0.0108384  0.0258333  0.0100056  2.56942e-10
0.0141717  0.0241667  0.0100401  1.16158e-10
0.0141717  0.0225  0.0100559  4.80617e-11
0.0141717  0.0208333  0.010062  1.28992e-11
0.0125051  0.0241667  0.0100401  1.16156e-10
0.0125051  0.0225  0.0100559  4.8061e-11
0.0125051  0.0208333  0.010062  1.28996e-11
0.0108384  0.0241667  0.0100401  1.16155e-10
0.0108384  0.0225  0.0100559  4.80599e-11
0.0108384  0.0208333  0.010062  1.29e-11
0.0141717  0.0191667  0.010062  -1.29168e-11
0.0141717  0.0175  0.0100559  -4.80608e-11
0.0141717  0.0158333  0.0100401  -1.16162e-10
0.0125051  0.0191667  0.010062  -1.29164e-11
0.0125051  0.0175  0.0100559  -4.80614e-11
0.0125051  0.0158333  0.0100401  -1.16161e-10
0.0108384  0.0191667  0.010062  -1.29164e-11
0.0108384  0.0175  0.0100559  -4.80614e-11
0.0108384  0.0158333  0.0100401  -1.1616e-10
0.0141717  0.0141667  0.0100056  -2.56944e-10
0.0141717  0.0125  0.00993466  -5.40615e-10
0.0141717  0.0108333  0.00979627  -1.08424e-09
0.0125051  0.0141667  0.0100056  -2.56943e-10
0.012505  0.0125  0.00993466  -5.40613e-10
0.012505  0.0108333  0.00979627  -1.08424e-09
0.0108384  0.0141667  0.0100056  -2.56944e-10
0.0108384  0.0125  0.00993466  -5.40612e-10
0.0108383  0.0108333  0.00979627  -1.08424e-09
0.0141716  0.00916667  0.00953827  -2.05849e-09
0.0141715  0.0075  0.00907891  -3.64491e-09
0.0141712  0.00583333  0.00829785  -5.83223e-09
0.0125049  0.00916667  0.00953827  -2.05849e-09
0.0125048  0.0075  0.00907891  -3.64491e-09
0.0125045  0.00583333  0.00829785  -5.83223e-09
0.0108383  0.00916667  0.00953827  -2.05849e-09
0.0108381  0.0075  0.00907891  -3.64491e-09
0.0108378  0.00583333  0.00829785  -5.83223e-09
0.0141707  0.00416667  0.00702926  -7.88568e-09
0.0141697  0.0025  0.00505938  -5.79451e-09
0.0141681  0.000833333  0.00213751  3.00792e-09
0.012504  0.00416667  0.00702926  -7.88568e-09
0.012503  0.0025  0.00505938  -5.79451e-09
0.0125014  0.000833333  0.00213751  3.00792e-09
0.0108373  0.00416667  0.00702926  -7.88568e-09
0.0108364  0.0025  0.00505938  -5.79451e-09
0.0108348  0.000833333  0.00213751  3.00792e-09
0.00916809  0.0391667  0.00213751  -3.00794e-09
0.00916971  0.0375  0.00505938  5.79449e-09
0.00917066  0.0358333  0.00702926  7.88566e-09
0.00750142  0.0391667  0.00213751  -3.00794e-09
0.00750305  0.0375  0.00505938  5.79449e-09
0.00750399  0.0358333  0.00702926  7.88566e-09
0.00583475  0.0391667  0.00213751  -3.00794e-09
0.00583638  0.0375  0.00505938  5.79449e-09
0.00583732  0.0358333  0.00702926  7.88567e-09
0.00917118  0.0341667  0.00829785  5.83222e-09
0.00917146  0.0325  0.00907891  3.6449e-09
0.0091716  0.0308333  0.00953827  2.05849e-09
0.00750451  0.0341667  0.00829785  5.83222e-09
0.00750479  0.0325  0.00907891  3.6449e-09
0.00750494  0.0308333  0.00953827  2.05849e-09
0.00583785  0.0341667  0.00829785  5.83222e-09
0.00583813  0.0325  0.00907891  3.6449e-09
0.00583827  0.0308333  0.00953827  2.05849e-09
0.00917168  0.0291667  0.00979627  1.08426e-09
0.00917171  0.0275  0.00993466  5.40648e-10
0.00917172  0.0258333  0.0100056  2.56943e-10
0.00750501  0.0291667  0.00979627  1.08426e-09
0.00750504  0.0275  0.00993466  5.40647e-10
0.00750506  0.0258333  0.0100056  2.56941e-10
0.00583834  0.0291667  0.00979627  1.08426e-09
0.00583838  0.0275  0.00993466  5.40645e-10
0.00583839  0.0258333  0.0100056  2.5694e-10
0.00917173  0.0241667  0.0100401  1.16154e-10
0.00917173  0.0225  0.0100559  4.80593e-11
0.00917174  0.0208333  0.010062  1.28995e-11
0.00750506  0.0241667  0.0100401  1.16154e-10
0.00750507  0.0225  0.0100559  4.80595e-11
0.00750507  0.0208333  0.010062  1.28986e-11
0.0058384  0.0241667  0.0100401  1.16155e-10
0.0058384  0.0225  0.0100559  4.80597e-11
0.0058384  0.0208333  0.010062  1.28981e-11
0.00917174  0.0191667  0.010062  -1.29167e-11
0.00917173  0.0175  0.0100559  -4.8061e-11
0.00917173  0.0158333  0.0100401  -1.1616e-10
0.00750507  0.0191667  0.010062  -1.29167e-11