4 2 3 4 5 6 11 8
1 2 3 4 5 6 0 8
3 2 3 4 5 6 12 8
2 2 3 4 5 6 13 8
3 1 1 1 1 1 14 1
3 2 3 4 5 6 0 8
3 1 1 1 1 1 15 1
3 1 1 1 1 1 16 1
4 2 3 4 5 6 17 8
4 2 3 4 5 6 0 8
4 2 3 4 5 6 0 8
4 2 3 4 5 6 0 8
4 2 3 4 5 6 0 8
4 2 3 4 5 6 0 8
4 2 3 4 5 6 0 8
4 2 3 4 5 6 0 8
4 2 3 4 5 6 0 8
5 2 3 4 5 6 0 8
5 2 3 4 5 6 0 88
5 2 3 4 5 6 18 8
2 2 3 4 5 6 19 8
6 4 7 14 7 18 20 12
7 2 3 4 5 6 0 8