This is the first row!!!
This is the second row!!!
1 2 3 4 5 6 11 8
1 2 3 4 5 6 0 8
1 2 3 4 5 6 12 8
2 2 3 4 5 6 13 8
3 2 3 4 5 6 14 8
3 2 3 4 5 6 0 8
3 2 3 4 5 6 15 8
3 2 3 4 5 6 16 8
4 2 3 4 5 6 17 8
4 2 3 4 5 6 0 8
4 2 3 4 5 6 0 8
4 2 3 4 5 6 0 8
4 2 3 4 5 6 0 8
4 2 3 4 5 6 0 8
4 2 3 4 5 6 0 8
4 2 3 4 5 6 0 8
4 2 3 4 5 6 0 8
5 2 3 4 5 6 0 8
5 2 3 4 5 6 0 88
5 2 3 4 5 6 18 8
6 2 3 4 5 6 19 8
6 2 3 4 5 6 20 8
7 2 3 4 5 6 0 8